<VTKFile type="UnstructuredGrid" version="0.1" byte_order="BigEndian">
  <UnstructuredGrid>
    <Piece NumberOfPoints="1229" NumberOfCells="29478">
      <PointData>
        <DataArray type="Float64" Name="position" NumberOfComponents="3" format="ascii">
-156.603 -114.116 -34.8147
-156.603 -114.116 -17.9076
-156.603 -114.116 -1.00043
-156.603 -93.2971 -34.8147
-156.603 -93.2971 -17.9076
-156.603 -93.2971 -1.00043
-156.603 -93.2971 15.9067
-156.603 -72.4787 -34.8147
-156.603 -72.4787 -17.9076
-156.603 -72.4787 -1.00043
-156.603 -72.4787 15.9067
-156.603 -51.6602 -34.8147
-156.603 -51.6602 -17.9076
-156.603 -51.6602 -1.00043
-156.603 -51.6602 15.9067
-156.603 -30.8418 -34.8147
-156.603 -30.8418 -17.9076
-156.603 -30.8418 -1.00043
-156.603 -30.8418 15.9067
-156.603 -10.0234 -51.7219
-156.603 -10.0234 -34.8147
-156.603 -10.0234 -17.9076
-156.603 -10.0234 -1.00043
-156.603 -10.0234 15.9067
-156.603 10.795 -51.7219
-156.603 10.795 -34.8147
-156.603 10.795 -17.9076
-156.603 10.795 -1.00043
-156.603 10.795 15.9067
-156.603 31.6134 -51.7219
-156.603 31.6134 -34.8147
-156.603 31.6134 -17.9076
-156.603 31.6134 -1.00043
-156.603 31.6134 15.9067
-156.603 52.4318 -34.8147
-156.603 52.4318 -17.9076
-156.603 52.4318 -1.00043
-140.186 -176.571 -17.9076
-140.186 -176.571 -1.00043
-140.186 -155.752 -34.8147
-140.186 -155.752 -17.9076
-140.186 -155.752 -1.00043
-140.186 -155.752 15.9067
-140.186 -134.934 -34.8147
-140.186 -134.934 -17.9076
-140.186 -134.934 -1.00043
-140.186 -134.934 15.9067
-140.186 -114.116 -34.8147
-140.186 -114.116 -17.9076
-140.186 -114.116 -1.00043
-140.186 -114.116 15.9067
-140.186 -93.2971 -34.8147
-140.186 -93.2971 -17.9076
-140.186 -93.2971 -1.00043
-140.186 -93.2971 15.9067
-140.186 -72.4787 -34.8147
-140.186 -72.4787 -17.9076
-140.186 -72.4787 -1.00043
-140.186 -72.4787 15.9067
-140.186 -51.6602 -34.8147
-140.186 -51.6602 -17.9076
-140.186 -51.6602 -1.00043
-140.186 -51.6602 15.9067
-140.186 -30.8418 -51.7219
-140.186 -30.8418 -34.8147
-140.186 -30.8418 -17.9076
-140.186 -30.8418 -1.00043
-140.186 -30.8418 15.9067
-140.186 -10.0234 -51.7219
-140.186 -10.0234 -34.8147
-140.186 -10.0234 -17.9076
-140.186 -10.0234 -1.00043
-140.186 -10.0234 15.9067
-140.186 10.795 -51.7219
-140.186 10.795 -34.8147
-140.186 10.795 -17.9076
-140.186 10.795 -1.00043
-140.186 10.795 15.9067
-140.186 31.6134 -51.7219
-140.186 31.6134 -34.8147
-140.186 31.6134 -17.9076
-140.186 31.6134 -1.00043
-140.186 31.6134 15.9067
-140.186 52.4318 -51.7219
-140.186 52.4318 -34.8147
-140.186 52.4318 -17.9076
-140.186 52.4318 -1.00043
-140.186 52.4318 15.9067
-123.769 -197.389 -51.7219
-123.769 -197.389 -34.8147
-123.769 -197.389 -17.9076
-123.769 -197.389 -1.00043
-123.769 -176.571 -68.6291
-123.769 -176.571 -51.7219
-123.769 -176.571 -34.8147
-123.769 -176.571 -17.9076
-123.769 -176.571 -1.00043
-123.769 -176.571 15.9067
-123.769 -155.752 -68.6291
-123.769 -155.752 -51.7219
-123.769 -155.752 -34.8147
-123.769 -155.752 -17.9076
-123.769 -155.752 -1.00043
-123.769 -155.752 15.9067
-123.769 -134.934 -68.6291
-123.769 -134.934 -51.7219
-123.769 -134.934 -34.8147
-123.769 -134.934 -17.9076
-123.769 -134.934 -1.00043
-123.769 -134.934 15.9067
-123.769 -114.116 -51.7219
-123.769 -114.116 -34.8147
-123.769 -114.116 -17.9076
-123.769 -114.116 -1.00043
-123.769 -114.116 15.9067
-123.769 -93.2971 -34.8147
-123.769 -93.2971 -17.9076
-123.769 -93.2971 -1.00043
-123.769 -93.2971 15.9067
-123.769 -72.4787 -34.8147
-123.769 -72.4787 -17.9076
-123.769 -72.4787 -1.00043
-123.769 -72.4787 15.9067
-123.769 -51.6602 -34.8147
-123.769 -51.6602 -17.9076
-123.769 -51.6602 -1.00043
-123.769 -51.6602 15.9067
-123.769 -30.8418 -51.7219
-123.769 -30.8418 -34.8147
-123.769 -30.8418 -17.9076
-123.769 -30.8418 -1.00043
-123.769 -30.8418 15.9067
-123.769 -10.0234 -51.7219
-123.769 -10.0234 -34.8147
-123.769 -10.0234 -17.9076
-123.769 -10.0234 -1.00043
-123.769 -10.0234 15.9067
-123.769 10.795 -51.7219
-123.769 10.795 -34.8147
-123.769 10.795 -17.9076
-123.769 10.795 -1.00043
-123.769 10.795 15.9067
-123.769 31.6134 -51.7219
-123.769 31.6134 -34.8147
-123.769 31.6134 -17.9076
-123.769 31.6134 -1.00043
-123.769 31.6134 15.9067
-123.769 52.4318 -51.7219
-123.769 52.4318 -34.8147
-123.769 52.4318 -17.9076
-123.769 52.4318 -1.00043
-123.769 52.4318 15.9067
-107.352 -197.389 -68.6291
-107.352 -197.389 -51.7219
-107.352 -197.389 -34.8147
-107.352 -197.389 -17.9076
-107.352 -197.389 -1.00043
-107.352 -176.571 -85.5362
-107.352 -176.571 -68.6291
-107.352 -176.571 -51.7219
-107.352 -176.571 -34.8147
-107.352 -176.571 -17.9076
-107.352 -176.571 -1.00043
-107.352 -176.571 15.9067
-107.352 -155.752 -85.5362
-107.352 -155.752 -68.6291
-107.352 -155.752 -51.7219
-107.352 -155.752 -34.8147
-107.352 -155.752 -17.9076
-107.352 -155.752 -1.00043
-107.352 -155.752 15.9067
-107.352 -134.934 -85.5362
-107.352 -134.934 -68.6291
-107.352 -134.934 -51.7219
-107.352 -134.934 -34.8147
-107.352 -134.934 -17.9076
-107.352 -134.934 -1.00043
-107.352 -134.934 15.9067
-107.352 -114.116 -51.7219
-107.352 -114.116 -34.8147
-107.352 -114.116 -17.9076
-107.352 -114.116 -1.00043
-107.352 -114.116 15.9067
-107.352 -93.2971 -34.8147
-107.352 -93.2971 -17.9076
-107.352 -93.2971 -1.00043
-107.352 -93.2971 15.9067
-107.352 -72.4787 -34.8147
-107.352 -72.4787 -17.9076
-107.352 -72.4787 -1.00043
-107.352 -72.4787 15.9067
-107.352 -51.6602 -34.8147
-107.352 -51.6602 -17.9076
-107.352 -51.6602 -1.00043
-107.352 -51.6602 15.9067
-107.352 -30.8418 -51.7219
-107.352 -30.8418 -34.8147
-107.352 -30.8418 -17.9076
-107.352 -30.8418 -1.00043
-107.352 -30.8418 15.9067
-107.352 -10.0234 -51.7219
-107.352 -10.0234 -34.8147
-107.352 -10.0234 -17.9076
-107.352 -10.0234 -1.00043
-107.352 -10.0234 15.9067
-107.352 10.795 -51.7219
-107.352 10.795 -34.8147
-107.352 10.795 -17.9076
-107.352 10.795 -1.00043
-107.352 10.795 15.9067
-107.352 31.6134 -51.7219
-107.352 31.6134 -34.8147
-107.352 31.6134 -17.9076
-107.352 31.6134 -1.00043
-107.352 31.6134 15.9067
-107.352 52.4318 -51.7219
-107.352 52.4318 -34.8147
-107.352 52.4318 -17.9076
-107.352 52.4318 -1.00043
-107.352 52.4318 15.9067
-90.935 -197.389 -85.5362
-90.935 -197.389 -68.6291
-90.935 -197.389 -51.7219
-90.935 -197.389 -34.8147
-90.935 -197.389 -17.9076
-90.935 -197.389 -1.00043
-90.935 -176.571 -102.443
-90.935 -176.571 -85.5362
-90.935 -176.571 -68.6291
-90.935 -176.571 -51.7219
-90.935 -176.571 -34.8147
-90.935 -176.571 -17.9076
-90.935 -176.571 -1.00043
-90.935 -176.571 15.9067
-90.935 -155.752 -102.443
-90.935 -155.752 -85.5362
-90.935 -155.752 -68.6291
-90.935 -155.752 -51.7219
-90.935 -155.752 -34.8147
-90.935 -155.752 -17.9076
-90.935 -155.752 -1.00043
-90.935 -155.752 15.9067
-90.935 -134.934 -102.443
-90.935 -134.934 -85.5362
-90.935 -134.934 -68.6291
-90.935 -134.934 -51.7219
-90.935 -134.934 -34.8147
-90.935 -134.934 -17.9076
-90.935 -134.934 -1.00043
-90.935 -134.934 15.9067
-90.935 -114.116 -85.5362
-90.935 -114.116 -68.6291
-90.935 -114.116 -51.7219
-90.935 -114.116 -34.8147
-90.935 -114.116 -17.9076
-90.935 -114.116 -1.00043
-90.935 -114.116 15.9067
-90.935 -93.2971 -34.8147
-90.935 -93.2971 -17.9076
-90.935 -93.2971 -1.00043
-90.935 -93.2971 15.9067
-90.935 -72.4787 -34.8147
-90.935 -72.4787 -17.9076
-90.935 -72.4787 -1.00043
-90.935 -72.4787 15.9067
-90.935 -51.6602 -34.8147
-90.935 -51.6602 -17.9076
-90.935 -51.6602 -1.00043
-90.935 -51.6602 15.9067
-90.935 -30.8418 -51.7219
-90.935 -30.8418 -34.8147
-90.935 -30.8418 -17.9076
-90.935 -30.8418 -1.00043
-90.935 -30.8418 15.9067
-90.935 -10.0234 -51.7219
-90.935 -10.0234 -34.8147
-90.935 -10.0234 -17.9076
-90.935 -10.0234 -1.00043
-90.935 -10.0234 15.9067
-90.935 10.795 -51.7219
-90.935 10.795 -34.8147
-90.935 10.795 -17.9076
-90.935 10.795 -1.00043
-90.935 10.795 15.9067
-90.935 31.6134 -51.7219
-90.935 31.6134 -34.8147
-90.935 31.6134 -17.9076
-90.935 31.6134 -1.00043
-90.935 31.6134 15.9067
-90.935 52.4318 -34.8147
-90.935 52.4318 -17.9076
-90.935 52.4318 -1.00043
-90.935 52.4318 15.9067
-74.5179 -197.389 -85.5362
-74.5179 -197.389 -68.6291
-74.5179 -197.389 -51.7219
-74.5179 -197.389 -34.8147
-74.5179 -197.389 -17.9076
-74.5179 -197.389 -1.00043
-74.5179 -176.571 -102.443
-74.5179 -176.571 -85.5362
-74.5179 -176.571 -68.6291
-74.5179 -176.571 -51.7219
-74.5179 -176.571 -34.8147
-74.5179 -176.571 -17.9076
-74.5179 -176.571 -1.00043
-74.5179 -155.752 -102.443
-74.5179 -155.752 -85.5362
-74.5179 -155.752 -68.6291
-74.5179 -155.752 -51.7219
-74.5179 -155.752 -34.8147
-74.5179 -155.752 -17.9076
-74.5179 -155.752 -1.00043
-74.5179 -134.934 -102.443
-74.5179 -134.934 -85.5362
-74.5179 -134.934 -68.6291
-74.5179 -134.934 -51.7219
-74.5179 -134.934 -34.8147
-74.5179 -134.934 -17.9076
-74.5179 -134.934 -1.00043
-74.5179 -114.116 -102.443
-74.5179 -114.116 -85.5362
-74.5179 -114.116 -68.6291
-74.5179 -114.116 -51.7219
-74.5179 -114.116 -34.8147
-74.5179 -114.116 -17.9076
-74.5179 -114.116 -1.00043
-74.5179 -93.2971 -17.9076
-74.5179 -93.2971 -1.00043
-74.5179 -30.8418 -34.8147
-74.5179 -30.8418 -17.9076
-74.5179 -30.8418 -1.00043
-74.5179 -10.0234 -51.7219
-74.5179 -10.0234 -34.8147
-74.5179 -10.0234 -17.9076
-74.5179 -10.0234 -1.00043
-74.5179 -10.0234 15.9067
-74.5179 10.795 -51.7219
-74.5179 10.795 -34.8147
-74.5179 10.795 -17.9076
-74.5179 10.795 -1.00043
-74.5179 10.795 15.9067
-74.5179 31.6134 -51.7219
-74.5179 31.6134 -34.8147
-74.5179 31.6134 -17.9076
-74.5179 31.6134 -1.00043
-74.5179 31.6134 15.9067
-58.1009 -197.389 -85.5362
-58.1009 -197.389 -68.6291
-58.1009 -197.389 -51.7219
-58.1009 -197.389 -34.8147
-58.1009 -176.571 -102.443
-58.1009 -176.571 -85.5362
-58.1009 -176.571 -68.6291
-58.1009 -176.571 -51.7219
-58.1009 -176.571 -34.8147
-58.1009 -155.752 -119.351
-58.1009 -155.752 -102.443
-58.1009 -155.752 -85.5362
-58.1009 -155.752 -68.6291
-58.1009 -155.752 -51.7219
-58.1009 -155.752 -34.8147
-58.1009 -134.934 -119.351
-58.1009 -134.934 -102.443
-58.1009 -134.934 -85.5362
-58.1009 -134.934 -68.6291
-58.1009 -134.934 -51.7219
-58.1009 -134.934 -34.8147
-58.1009 -114.116 -119.351
-58.1009 -114.116 -102.443
-58.1009 -114.116 -85.5362
-58.1009 -114.116 -68.6291
-58.1009 -114.116 -51.7219
-41.6838 -176.571 -102.443
-41.6838 -176.571 -85.5362
-41.6838 -176.571 -68.6291
-41.6838 -176.571 -51.7219
-41.6838 -176.571 -34.8147
-41.6838 -155.752 -119.351
-41.6838 -155.752 -102.443
-41.6838 -155.752 -85.5362
-41.6838 -155.752 -68.6291
-41.6838 -155.752 -51.7219
-41.6838 -155.752 -34.8147
-41.6838 -134.934 -119.351
-41.6838 -134.934 -102.443
-41.6838 -134.934 -85.5362
-41.6838 -134.934 -68.6291
-41.6838 -134.934 -51.7219
-41.6838 -134.934 -34.8147
-41.6838 -114.116 -119.351
-41.6838 -114.116 -102.443
-41.6838 -114.116 -85.5362
-41.6838 -114.116 -68.6291
-41.6838 -114.116 -51.7219
-41.6838 73.2503 66.6282
-41.6838 73.2503 83.5354
-41.6838 94.0687 66.6282
-41.6838 94.0687 83.5354
-25.2668 -176.571 -119.351
-25.2668 -176.571 -102.443
-25.2668 -176.571 -85.5362
-25.2668 -176.571 -68.6291
-25.2668 -176.571 -51.7219
-25.2668 -155.752 -119.351
-25.2668 -155.752 -102.443
-25.2668 -155.752 -85.5362
-25.2668 -155.752 -68.6291
-25.2668 -155.752 -51.7219
-25.2668 -134.934 -119.351
-25.2668 -134.934 -102.443
-25.2668 -134.934 -85.5362
-25.2668 -134.934 -68.6291
-25.2668 -134.934 -51.7219
-25.2668 -114.116 -119.351
-25.2668 -114.116 -102.443
-25.2668 -114.116 -85.5362
-25.2668 -114.116 -68.6291
-25.2668 -114.116 -51.7219
-25.2668 52.4318 32.8139
-25.2668 52.4318 49.7211
-25.2668 52.4318 66.6282
-25.2668 52.4318 83.5354
-25.2668 52.4318 100.443
-25.2668 73.2503 15.9067
-25.2668 73.2503 32.8139
-25.2668 73.2503 49.7211
-25.2668 73.2503 66.6282
-25.2668 73.2503 83.5354
-25.2668 73.2503 100.443
-25.2668 73.2503 117.35
-25.2668 94.0687 15.9067
-25.2668 94.0687 32.8139
-25.2668 94.0687 49.7211
-25.2668 94.0687 66.6282
-25.2668 94.0687 83.5354
-25.2668 94.0687 100.443
-25.2668 94.0687 117.35
-25.2668 114.887 49.7211
-25.2668 114.887 66.6282
-25.2668 114.887 83.5354
-25.2668 114.887 100.443
-25.2668 114.887 117.35
-25.2668 135.706 66.6282
-25.2668 135.706 83.5354
-25.2668 135.706 100.443
-25.2668 135.706 117.35
-25.2668 156.524 66.6282
-25.2668 156.524 83.5354
-25.2668 156.524 100.443
-25.2668 156.524 117.35
-25.2668 177.342 66.6282
-25.2668 177.342 83.5354
-25.2668 177.342 100.443
-25.2668 177.342 117.35
-25.2668 198.161 66.6282
-25.2668 198.161 83.5354
-25.2668 198.161 100.443
-8.84974 -176.571 -119.351
-8.84974 -176.571 -102.443
-8.84974 -176.571 -85.5362
-8.84974 -176.571 -68.6291
-8.84974 -155.752 -119.351
-8.84974 -155.752 -102.443
-8.84974 -155.752 -85.5362
-8.84974 -155.752 -68.6291
-8.84974 -155.752 -51.7219
-8.84974 -134.934 -119.351
-8.84974 -134.934 -102.443
-8.84974 -134.934 -85.5362
-8.84974 -134.934 -68.6291
-8.84974 -134.934 -51.7219
-8.84974 -114.116 -119.351
-8.84974 -114.116 -102.443
-8.84974 -114.116 -85.5362
-8.84974 -114.116 -68.6291
-8.84974 -114.116 -51.7219
-8.84974 52.4318 -1.00043
-8.84974 52.4318 15.9067
-8.84974 52.4318 32.8139
-8.84974 52.4318 49.7211
-8.84974 52.4318 66.6282
-8.84974 52.4318 83.5354
-8.84974 52.4318 100.443
-8.84974 73.2503 -1.00043
-8.84974 73.2503 15.9067
-8.84974 73.2503 32.8139
-8.84974 73.2503 49.7211
-8.84974 73.2503 66.6282
-8.84974 73.2503 83.5354
-8.84974 73.2503 100.443
-8.84974 73.2503 117.35
-8.84974 94.0687 -1.00043
-8.84974 94.0687 15.9067
-8.84974 94.0687 32.8139
-8.84974 94.0687 49.7211
-8.84974 94.0687 66.6282
-8.84974 94.0687 83.5354
-8.84974 94.0687 100.443
-8.84974 94.0687 117.35
-8.84974 114.887 15.9067
-8.84974 114.887 32.8139
-8.84974 114.887 49.7211
-8.84974 114.887 66.6282
-8.84974 114.887 83.5354
-8.84974 114.887 100.443
-8.84974 114.887 117.35
-8.84974 135.706 49.7211
-8.84974 135.706 66.6282
-8.84974 135.706 83.5354
-8.84974 135.706 100.443
-8.84974 135.706 117.35
-8.84974 156.524 49.7211
-8.84974 156.524 66.6282
-8.84974 156.524 83.5354
-8.84974 156.524 100.443
-8.84974 156.524 117.35
-8.84974 177.342 49.7211
-8.84974 177.342 66.6282
-8.84974 177.342 83.5354
-8.84974 177.342 100.443
-8.84974 177.342 117.35
-8.84974 198.161 49.7211
-8.84974 198.161 66.6282
-8.84974 198.161 83.5354
-8.84974 198.161 100.443
7.56731 -176.571 -119.351
7.56731 -176.571 -102.443
7.56731 -176.571 -85.5362
7.56731 -176.571 -68.6291
7.56731 -155.752 -119.351
7.56731 -155.752 -102.443
7.56731 -155.752 -85.5362
7.56731 -155.752 -68.6291
7.56731 -134.934 -119.351
7.56731 -134.934 -102.443
7.56731 -134.934 -85.5362
7.56731 -134.934 -68.6291
7.56731 -114.116 -119.351
7.56731 -114.116 -102.443
7.56731 -114.116 -85.5362
7.56731 -114.116 -68.6291
7.56731 52.4318 -17.9076
7.56731 52.4318 -1.00043
7.56731 52.4318 15.9067
7.56731 52.4318 32.8139
7.56731 52.4318 49.7211
7.56731 52.4318 66.6282
7.56731 52.4318 83.5354
7.56731 52.4318 100.443
7.56731 73.2503 -17.9076
7.56731 73.2503 -1.00043
7.56731 73.2503 15.9067
7.56731 73.2503 32.8139
7.56731 73.2503 49.7211
7.56731 73.2503 66.6282
7.56731 73.2503 83.5354
7.56731 73.2503 100.443
7.56731 73.2503 117.35
7.56731 94.0687 -17.9076
7.56731 94.0687 -1.00043
7.56731 94.0687 15.9067
7.56731 94.0687 32.8139
7.56731 94.0687 49.7211
7.56731 94.0687 66.6282
7.56731 94.0687 83.5354
7.56731 94.0687 100.443
7.56731 94.0687 117.35
7.56731 114.887 -1.00043
7.56731 114.887 15.9067
7.56731 114.887 32.8139
7.56731 114.887 49.7211
7.56731 114.887 66.6282
7.56731 114.887 83.5354
7.56731 114.887 100.443
7.56731 114.887 117.35
7.56731 135.706 49.7211
7.56731 135.706 66.6282
7.56731 135.706 83.5354
7.56731 135.706 100.443
7.56731 135.706 117.35
7.56731 156.524 49.7211
7.56731 156.524 66.6282
7.56731 156.524 83.5354
7.56731 156.524 100.443
7.56731 156.524 117.35
7.56731 177.342 49.7211
7.56731 177.342 66.6282
7.56731 177.342 83.5354
7.56731 177.342 100.443
7.56731 177.342 117.35
7.56731 198.161 49.7211
7.56731 198.161 66.6282
7.56731 198.161 83.5354
7.56731 198.161 100.443
23.9844 -176.571 -119.351
23.9844 -176.571 -102.443
23.9844 -176.571 -85.5362
23.9844 -176.571 -68.6291
23.9844 -155.752 -119.351
23.9844 -155.752 -102.443
23.9844 -155.752 -85.5362
23.9844 -155.752 -68.6291
23.9844 -134.934 -119.351
23.9844 -134.934 -102.443
23.9844 -134.934 -85.5362
23.9844 -134.934 -68.6291
23.9844 -114.116 -119.351
23.9844 -114.116 -102.443
23.9844 -114.116 -85.5362
23.9844 -114.116 -68.6291
23.9844 31.6134 -1.00043
23.9844 31.6134 15.9067
23.9844 31.6134 32.8139
23.9844 52.4318 -34.8147
23.9844 52.4318 -17.9076
23.9844 52.4318 -1.00043
23.9844 52.4318 15.9067
23.9844 52.4318 32.8139
23.9844 52.4318 49.7211
23.9844 52.4318 66.6282
23.9844 52.4318 83.5354
23.9844 52.4318 100.443
23.9844 73.2503 -34.8147
23.9844 73.2503 -17.9076
23.9844 73.2503 -1.00043
23.9844 73.2503 15.9067
23.9844 73.2503 32.8139
23.9844 73.2503 49.7211
23.9844 73.2503 66.6282
23.9844 73.2503 83.5354
23.9844 73.2503 100.443
23.9844 73.2503 117.35
23.9844 94.0687 -34.8147
23.9844 94.0687 -17.9076
23.9844 94.0687 -1.00043
23.9844 94.0687 15.9067
23.9844 94.0687 32.8139
23.9844 94.0687 49.7211
23.9844 94.0687 66.6282
23.9844 94.0687 83.5354
23.9844 94.0687 100.443
23.9844 94.0687 117.35
23.9844 114.887 -17.9076
23.9844 114.887 -1.00043
23.9844 114.887 15.9067
23.9844 114.887 32.8139
23.9844 114.887 49.7211
23.9844 114.887 66.6282
23.9844 114.887 83.5354
23.9844 114.887 100.443
23.9844 114.887 117.35
23.9844 135.706 49.7211
23.9844 135.706 66.6282
23.9844 135.706 83.5354
23.9844 135.706 100.443
23.9844 135.706 117.35
23.9844 156.524 49.7211
23.9844 156.524 66.6282
23.9844 156.524 83.5354
23.9844 156.524 100.443
23.9844 156.524 117.35
23.9844 177.342 49.7211
23.9844 177.342 66.6282
23.9844 177.342 83.5354
23.9844 177.342 100.443
23.9844 177.342 117.35
23.9844 198.161 49.7211
23.9844 198.161 66.6282
23.9844 198.161 83.5354
23.9844 198.161 100.443
40.4014 -176.571 -119.351
40.4014 -176.571 -102.443
40.4014 -176.571 -85.5362
40.4014 -176.571 -68.6291
40.4014 -176.571 -51.7219
40.4014 -155.752 -119.351
40.4014 -155.752 -102.443
40.4014 -155.752 -85.5362
40.4014 -155.752 -68.6291
40.4014 -155.752 -51.7219
40.4014 -134.934 -119.351
40.4014 -134.934 -102.443
40.4014 -134.934 -85.5362
40.4014 -134.934 -68.6291
40.4014 -134.934 -51.7219
40.4014 -114.116 -119.351
40.4014 -114.116 -102.443
40.4014 -114.116 -85.5362
40.4014 -114.116 -68.6291
40.4014 -114.116 -51.7219
40.4014 31.6134 -17.9076
40.4014 31.6134 -1.00043
40.4014 31.6134 15.9067
40.4014 31.6134 32.8139
40.4014 52.4318 -51.7219
40.4014 52.4318 -34.8147
40.4014 52.4318 -17.9076
40.4014 52.4318 -1.00043
40.4014 52.4318 15.9067
40.4014 52.4318 32.8139
40.4014 52.4318 49.7211
40.4014 52.4318 66.6282
40.4014 52.4318 83.5354
40.4014 52.4318 100.443
40.4014 73.2503 -51.7219
40.4014 73.2503 -34.8147
40.4014 73.2503 -17.9076
40.4014 73.2503 -1.00043
40.4014 73.2503 15.9067
40.4014 73.2503 32.8139
40.4014 73.2503 49.7211
40.4014 73.2503 66.6282
40.4014 73.2503 83.5354
40.4014 73.2503 100.443
40.4014 73.2503 117.35
40.4014 94.0687 -51.7219
40.4014 94.0687 -34.8147
40.4014 94.0687 -17.9076
40.4014 94.0687 -1.00043
40.4014 94.0687 15.9067
40.4014 94.0687 32.8139
40.4014 94.0687 49.7211
40.4014 94.0687 66.6282
40.4014 94.0687 83.5354
40.4014 94.0687 100.443
40.4014 94.0687 117.35
40.4014 114.887 -17.9076
40.4014 114.887 -1.00043
40.4014 114.887 15.9067
40.4014 114.887 32.8139
40.4014 114.887 49.7211
40.4014 114.887 66.6282
40.4014 114.887 83.5354
40.4014 114.887 100.443
40.4014 114.887 117.35
40.4014 135.706 66.6282
40.4014 135.706 83.5354
40.4014 135.706 100.443
40.4014 135.706 117.35
40.4014 156.524 66.6282
40.4014 156.524 83.5354
40.4014 156.524 100.443
40.4014 156.524 117.35
56.8184 -197.389 -68.6291
56.8184 -197.389 -51.7219
56.8184 -197.389 -34.8147
56.8184 -176.571 -119.351
56.8184 -176.571 -102.443
56.8184 -176.571 -85.5362
56.8184 -176.571 -68.6291
56.8184 -176.571 -51.7219
56.8184 -176.571 -34.8147
56.8184 -155.752 -119.351
56.8184 -155.752 -102.443
56.8184 -155.752 -85.5362
56.8184 -155.752 -68.6291
56.8184 -155.752 -51.7219
56.8184 -155.752 -34.8147
56.8184 -134.934 -119.351
56.8184 -134.934 -102.443
56.8184 -134.934 -85.5362
56.8184 -134.934 -68.6291
56.8184 -134.934 -51.7219
56.8184 -134.934 -34.8147
56.8184 -114.116 -119.351
56.8184 -114.116 -102.443
56.8184 -114.116 -85.5362
56.8184 -114.116 -68.6291
56.8184 -114.116 -51.7219
56.8184 31.6134 -51.7219
56.8184 31.6134 -34.8147
56.8184 31.6134 -17.9076
56.8184 31.6134 -1.00043
56.8184 31.6134 15.9067
56.8184 31.6134 32.8139
56.8184 52.4318 -51.7219
56.8184 52.4318 -34.8147
56.8184 52.4318 -17.9076
56.8184 52.4318 -1.00043
56.8184 52.4318 15.9067
56.8184 52.4318 32.8139
56.8184 52.4318 49.7211
56.8184 52.4318 66.6282
56.8184 73.2503 -51.7219
56.8184 73.2503 -34.8147
56.8184 73.2503 -17.9076
56.8184 73.2503 -1.00043
56.8184 73.2503 15.9067
56.8184 73.2503 32.8139
56.8184 73.2503 49.7211
56.8184 73.2503 66.6282
56.8184 94.0687 -51.7219
56.8184 94.0687 -34.8147
56.8184 94.0687 -17.9076
56.8184 94.0687 -1.00043
56.8184 94.0687 15.9067
56.8184 94.0687 32.8139
56.8184 94.0687 49.7211
56.8184 94.0687 66.6282
56.8184 114.887 -17.9076
56.8184 114.887 -1.00043
56.8184 114.887 15.9067
56.8184 114.887 32.8139
56.8184 114.887 49.7211
73.2355 -197.389 -85.5362
73.2355 -197.389 -68.6291
73.2355 -197.389 -51.7219
73.2355 -197.389 -34.8147
73.2355 -197.389 -17.9076
73.2355 -197.389 -1.00043
73.2355 -176.571 -102.443
73.2355 -176.571 -85.5362
73.2355 -176.571 -68.6291
73.2355 -176.571 -51.7219
73.2355 -176.571 -34.8147
73.2355 -176.571 -17.9076
73.2355 -176.571 -1.00043
73.2355 -155.752 -119.351
73.2355 -155.752 -102.443
73.2355 -155.752 -85.5362
73.2355 -155.752 -68.6291
73.2355 -155.752 -51.7219
73.2355 -155.752 -34.8147
73.2355 -155.752 -17.9076
73.2355 -155.752 -1.00043
73.2355 -134.934 -119.351
73.2355 -134.934 -102.443
73.2355 -134.934 -85.5362
73.2355 -134.934 -68.6291
73.2355 -134.934 -51.7219
73.2355 -134.934 -34.8147
73.2355 -134.934 -17.9076
73.2355 -134.934 -1.00043
73.2355 -114.116 -119.351
73.2355 -114.116 -102.443
73.2355 -114.116 -85.5362
73.2355 -114.116 -68.6291
73.2355 -114.116 -51.7219
73.2355 10.795 -51.7219
73.2355 10.795 -34.8147
73.2355 10.795 -17.9076
73.2355 10.795 -1.00043
73.2355 31.6134 -51.7219
73.2355 31.6134 -34.8147
73.2355 31.6134 -17.9076
73.2355 31.6134 -1.00043
73.2355 31.6134 15.9067
73.2355 31.6134 32.8139
73.2355 52.4318 -51.7219
73.2355 52.4318 -34.8147
73.2355 52.4318 -17.9076
73.2355 52.4318 -1.00043
73.2355 52.4318 15.9067
73.2355 52.4318 32.8139
73.2355 52.4318 49.7211
73.2355 73.2503 -51.7219
73.2355 73.2503 -34.8147
73.2355 73.2503 -17.9076
73.2355 73.2503 -1.00043
73.2355 73.2503 15.9067
73.2355 73.2503 32.8139
73.2355 73.2503 49.7211
73.2355 94.0687 -51.7219
73.2355 94.0687 -34.8147
73.2355 94.0687 -17.9076
73.2355 94.0687 -1.00043
73.2355 94.0687 15.9067
73.2355 94.0687 32.8139
73.2355 94.0687 49.7211
73.2355 114.887 -17.9076
73.2355 114.887 -1.00043
73.2355 114.887 15.9067
73.2355 114.887 32.8139
89.6525 -197.389 -85.5362
89.6525 -197.389 -68.6291
89.6525 -197.389 -51.7219
89.6525 -197.389 -34.8147
89.6525 -197.389 -17.9076
89.6525 -197.389 -1.00043
89.6525 -197.389 15.9067
89.6525 -176.571 -102.443
89.6525 -176.571 -85.5362
89.6525 -176.571 -68.6291
89.6525 -176.571 -51.7219
89.6525 -176.571 -34.8147
89.6525 -176.571 -17.9076
89.6525 -176.571 -1.00043
89.6525 -176.571 15.9067
89.6525 -155.752 -102.443
89.6525 -155.752 -85.5362
89.6525 -155.752 -68.6291
89.6525 -155.752 -51.7219
89.6525 -155.752 -34.8147
89.6525 -155.752 -17.9076
89.6525 -155.752 -1.00043
89.6525 -155.752 15.9067
89.6525 -134.934 -102.443
89.6525 -134.934 -85.5362
89.6525 -134.934 -68.6291
89.6525 -134.934 -51.7219
89.6525 -134.934 -34.8147
89.6525 -134.934 -17.9076
89.6525 -134.934 -1.00043
89.6525 -134.934 15.9067
89.6525 -114.116 -102.443
89.6525 -114.116 -85.5362
89.6525 -114.116 -68.6291
89.6525 -114.116 -51.7219
89.6525 -114.116 -34.8147
89.6525 -114.116 -17.9076
89.6525 -114.116 -1.00043
89.6525 -114.116 15.9067
89.6525 -93.2971 -34.8147
89.6525 -93.2971 -17.9076
89.6525 -93.2971 -1.00043
89.6525 -93.2971 15.9067
89.6525 -72.4787 -34.8147
89.6525 -72.4787 -17.9076
89.6525 -72.4787 -1.00043
89.6525 -72.4787 15.9067
89.6525 -51.6602 -34.8147
89.6525 -51.6602 -17.9076
89.6525 -51.6602 -1.00043
89.6525 -51.6602 15.9067
89.6525 -30.8418 -34.8147
89.6525 -30.8418 -17.9076
89.6525 -30.8418 -1.00043
89.6525 -30.8418 15.9067
89.6525 -10.0234 -34.8147
89.6525 -10.0234 -17.9076
89.6525 -10.0234 -1.00043
89.6525 -10.0234 15.9067
89.6525 10.795 -51.7219
89.6525 10.795 -34.8147
89.6525 10.795 -17.9076
89.6525 10.795 -1.00043
89.6525 10.795 15.9067
89.6525 31.6134 -51.7219
89.6525 31.6134 -34.8147
89.6525 31.6134 -17.9076
89.6525 31.6134 -1.00043
89.6525 31.6134 15.9067
89.6525 31.6134 32.8139
89.6525 52.4318 -51.7219
89.6525 52.4318 -34.8147
89.6525 52.4318 -17.9076
89.6525 52.4318 -1.00043
89.6525 52.4318 15.9067
89.6525 52.4318 32.8139
89.6525 73.2503 -51.7219
89.6525 73.2503 -34.8147
89.6525 73.2503 -17.9076
89.6525 73.2503 -1.00043
89.6525 73.2503 15.9067
89.6525 73.2503 32.8139
89.6525 94.0687 -51.7219
89.6525 94.0687 -34.8147
89.6525 94.0687 -17.9076
89.6525 94.0687 -1.00043
89.6525 94.0687 15.9067
89.6525 94.0687 32.8139
106.07 -197.389 -68.6291
106.07 -197.389 -51.7219
106.07 -197.389 -34.8147
106.07 -197.389 -17.9076
106.07 -197.389 -1.00043
106.07 -197.389 15.9067
106.07 -176.571 -85.5362
106.07 -176.571 -68.6291
106.07 -176.571 -51.7219
106.07 -176.571 -34.8147
106.07 -176.571 -17.9076
106.07 -176.571 -1.00043
106.07 -176.571 15.9067
106.07 -155.752 -85.5362
106.07 -155.752 -68.6291
106.07 -155.752 -51.7219
106.07 -155.752 -34.8147
106.07 -155.752 -17.9076
106.07 -155.752 -1.00043
106.07 -155.752 15.9067
106.07 -134.934 -85.5362
106.07 -134.934 -68.6291
106.07 -134.934 -51.7219
106.07 -134.934 -34.8147
106.07 -134.934 -17.9076
106.07 -134.934 -1.00043
106.07 -134.934 15.9067
106.07 -114.116 -34.8147
106.07 -114.116 -17.9076
106.07 -114.116 -1.00043
106.07 -114.116 15.9067
106.07 -93.2971 -34.8147
106.07 -93.2971 -17.9076
106.07 -93.2971 -1.00043
106.07 -93.2971 15.9067
106.07 -93.2971 32.8139
106.07 -72.4787 -34.8147
106.07 -72.4787 -17.9076
106.07 -72.4787 -1.00043
106.07 -72.4787 15.9067
106.07 -72.4787 32.8139
106.07 -51.6602 -34.8147
106.07 -51.6602 -17.9076
106.07 -51.6602 -1.00043
106.07 -51.6602 15.9067
106.07 -51.6602 32.8139
106.07 -30.8418 -34.8147
106.07 -30.8418 -17.9076
106.07 -30.8418 -1.00043
106.07 -30.8418 15.9067
106.07 -30.8418 32.8139
106.07 -10.0234 -51.7219
106.07 -10.0234 -34.8147
106.07 -10.0234 -17.9076
106.07 -10.0234 -1.00043
106.07 -10.0234 15.9067
106.07 -10.0234 32.8139
106.07 10.795 -51.7219
106.07 10.795 -34.8147
106.07 10.795 -17.9076
106.07 10.795 -1.00043
106.07 10.795 15.9067
106.07 31.6134 -51.7219
106.07 31.6134 -34.8147
106.07 31.6134 -17.9076
106.07 31.6134 -1.00043
106.07 31.6134 15.9067
106.07 52.4318 -51.7219
106.07 52.4318 -34.8147
106.07 52.4318 -17.9076
106.07 52.4318 -1.00043
106.07 52.4318 15.9067
106.07 73.2503 -51.7219
106.07 73.2503 -34.8147
106.07 73.2503 -17.9076
106.07 73.2503 -1.00043
106.07 73.2503 15.9067
106.07 94.0687 -34.8147
106.07 94.0687 -17.9076
106.07 94.0687 -1.00043
106.07 94.0687 15.9067
122.487 -197.389 -51.7219
122.487 -197.389 -34.8147
122.487 -197.389 -17.9076
122.487 -197.389 -1.00043
122.487 -197.389 15.9067
122.487 -176.571 -68.6291
122.487 -176.571 -51.7219
122.487 -176.571 -34.8147
122.487 -176.571 -17.9076
122.487 -176.571 -1.00043
122.487 -176.571 15.9067
122.487 -155.752 -68.6291
122.487 -155.752 -51.7219
122.487 -155.752 -34.8147
122.487 -155.752 -17.9076
122.487 -155.752 -1.00043
122.487 -155.752 15.9067
122.487 -134.934 -68.6291
122.487 -134.934 -51.7219
122.487 -134.934 -34.8147
122.487 -134.934 -17.9076
122.487 -134.934 -1.00043
122.487 -134.934 15.9067
122.487 -114.116 -34.8147
122.487 -114.116 -17.9076
122.487 -114.116 -1.00043
122.487 -114.116 15.9067
122.487 -93.2971 -34.8147
122.487 -93.2971 -17.9076
122.487 -93.2971 -1.00043
122.487 -93.2971 15.9067
122.487 -93.2971 32.8139
122.487 -72.4787 -34.8147
122.487 -72.4787 -17.9076
122.487 -72.4787 -1.00043
122.487 -72.4787 15.9067
122.487 -72.4787 32.8139
122.487 -51.6602 -34.8147
122.487 -51.6602 -17.9076
122.487 -51.6602 -1.00043
122.487 -51.6602 15.9067
122.487 -51.6602 32.8139
122.487 -30.8418 -34.8147
122.487 -30.8418 -17.9076
122.487 -30.8418 -1.00043
122.487 -30.8418 15.9067
122.487 -30.8418 32.8139
122.487 -10.0234 -51.7219
122.487 -10.0234 -34.8147
122.487 -10.0234 -17.9076
122.487 -10.0234 -1.00043
122.487 -10.0234 15.9067
122.487 -10.0234 32.8139
122.487 10.795 -51.7219
122.487 10.795 -34.8147
122.487 10.795 -17.9076
122.487 10.795 -1.00043
122.487 10.795 15.9067
122.487 10.795 32.8139
122.487 31.6134 -51.7219
122.487 31.6134 -34.8147
122.487 31.6134 -17.9076
122.487 31.6134 -1.00043
122.487 31.6134 15.9067
122.487 52.4318 -51.7219
122.487 52.4318 -34.8147
122.487 52.4318 -17.9076
122.487 52.4318 -1.00043
122.487 52.4318 15.9067
122.487 73.2503 -51.7219
122.487 73.2503 -34.8147
122.487 73.2503 -17.9076
122.487 73.2503 -1.00043
122.487 73.2503 15.9067
122.487 94.0687 -34.8147
122.487 94.0687 -17.9076
122.487 94.0687 -1.00043
138.904 -197.389 -51.7219
138.904 -197.389 -34.8147
138.904 -197.389 -17.9076
138.904 -197.389 -1.00043
138.904 -176.571 -51.7219
138.904 -176.571 -34.8147
138.904 -176.571 -17.9076
138.904 -176.571 -1.00043
138.904 -176.571 15.9067
138.904 -155.752 -51.7219
138.904 -155.752 -34.8147
138.904 -155.752 -17.9076
138.904 -155.752 -1.00043
138.904 -155.752 15.9067
138.904 -134.934 -51.7219
138.904 -134.934 -34.8147
138.904 -134.934 -17.9076
138.904 -134.934 -1.00043
138.904 -134.934 15.9067
138.904 -114.116 -34.8147
138.904 -114.116 -17.9076
138.904 -114.116 -1.00043
138.904 -114.116 15.9067
138.904 -93.2971 -34.8147
138.904 -93.2971 -17.9076
138.904 -93.2971 -1.00043
138.904 -93.2971 15.9067
138.904 -93.2971 32.8139
138.904 -72.4787 -34.8147
138.904 -72.4787 -17.9076
138.904 -72.4787 -1.00043
138.904 -72.4787 15.9067
138.904 -72.4787 32.8139
138.904 -51.6602 -34.8147
138.904 -51.6602 -17.9076
138.904 -51.6602 -1.00043
138.904 -51.6602 15.9067
138.904 -51.6602 32.8139
138.904 -30.8418 -34.8147
138.904 -30.8418 -17.9076
138.904 -30.8418 -1.00043
138.904 -30.8418 15.9067
138.904 -30.8418 32.8139
138.904 -10.0234 -51.7219
138.904 -10.0234 -34.8147
138.904 -10.0234 -17.9076